data_9008569
_chemical_name 'Graphite'
loop_
_publ_author_name
'Wyckoff R W G'
_journal_name_full "Crystal Structures"
_journal_volume 1
_journal_year 1963
_journal_page_first 7
_journal_page_last 83
_publ_section_title
;
 Second edition. Interscience Publishers, New York, New York
;
_chemical_formula_sum 'C'
_cell_length_a 2.456
_cell_length_b 2.456
_cell_length_c 10.044
_cell_angle_alpha 90
_cell_angle_beta 90
_cell_angle_gamma 120
_cell_volume 34.979
_symmetry_space_group_name_H-M 'P 1'
loop_
_symmetry_equiv_pos_as_xyz
  'x,y,z'
loop_
_atom_site_label
_atom_site_fract_x
_atom_site_fract_y
_atom_site_fract_z
C1   0.00000   0.00000   0.00000
C2   0.3333333333   0.6666666666667   0.00000
C3   0.00000   0.00000   0.3333333333
C4   0.6666666666667   0.3333333333   0.3333333333
C5   0.333333333333333   0.6666666666667   0.6666666666667
C6   0.6666666666667   0.3333333333   0.6666666666667
