###############################################################################
# ATTENTION: THIS IS NOT A REAL CIF FILE!  It is based on the reference below 
# but is for a completely different compound.  #Only trust the lattice parameters,
# formula, and atom positions!!!
#
# Peymann, T.;Knobler, C.B.;Khan, S.I.;Hawthorne, M.F. (1999)
# Journal of the American Chemical Society 123, 2182-2185
# Dodecahydroxy-closo-dodecaborate(2-)
# 
# CIF by ICSD-for-WWW,  Copyright 2003 FIZ-Karlsruhe & A.W.Hewat (hewat@ill.fr)
# NOT TO BE PUBLISHED IN ANY FORM. See http://icsd.ill.fr/icsd/conditions.html
###############################################################################

data_51304-ICSD
_database_code_ICSD                51304
_audit_creation_date               2007-10-01
_chemical_name_systematic
'Dilithium dodecahydro-dodecaborate'
_chemical_formula_structural       
'Li2 (B12 H12)'
_chemical_formula_sum              
'H12 B12 Li2'
_publ_section_title                
'H12 B12 Li2'
loop_
_citation_id
_citation_journal_abbrev
_citation_year
_citation_journal_volume
_citation_page_first
_citation_page_last
_citation_journal_id_ASTM
primary 'Journal of the American Chemical Society' 1999 123 2182 2185 JACSAT
loop_
_publ_author_name
Peymann, T.;Knobler, C.B.;Khan, S.I.;Hawthorne, M.F.
_cell_length_a                     7.358
_cell_length_b                     9.556
_cell_length_c                     6.768
_cell_angle_alpha                  90.
_cell_angle_beta                   92.26
_cell_angle_gamma                  90.
_cell_volume                       656.9608
_cell_formula_units_Z              2
_symmetry_space_group_name_H-M     'P 1 21/n 1'
_symmetry_Int_Tables_number        14
_refine_ls_R_factor_all            0.0307
loop_
_symmetry_equiv_pos_site_id
_symmetry_equiv_pos_as_xyz
   1   '-x+1/2, y+1/2, -z+1/2'
   2   '-x, -y, -z'
   3   'x+1/2, -y+1/2, z+1/2'
   4   'x, y, z'
loop_
_atom_site_label
_atom_site_type_symbol
_atom_site_symmetry_multiplicity
_atom_site_Wyckoff_symbol
_atom_site_fract_x
_atom_site_fract_y
_atom_site_fract_z
_atom_site_B_iso_or_equiv
_atom_site_occupancy
Li1 Li 4 e 0.6747 0.6250 0.5323 0.0 1.
B1 B 4 e 0.6770 0.5392 0.1632 0.0 1.
B2 B 4 e 0.4447 0.5629 0.2239 0.0 1.
B3 B 4 e 0.5425 0.6760 0.0442 0.0 1.
B4 B 4 e 0.6915 0.5689 0.9022 0.0 1.
B5 B 4 e 0.6856 0.3922 0.9959 0.0 1.
B6 B 4 e 0.5329 0.3887 0.1933 0.0 1.
H1 H 4 e 0.8033 0.5642 0.2786 0.0 1.
H2 H 4 e 0.4008 0.6050 0.3840 0.0 1.
H3 H 4 e 0.5707 0.7983 0.0742 0.0 1.
H4 H 4 e 0.8252 0.6151 0.8271 0.0 1.
H5 H 4 e 0.8231 0.3231 0.9941 0.0 1.
H6 H 4 e 0.5558 0.3097 0.3310 0.0 1.
loop_
_atom_site_aniso_label
_atom_site_aniso_type_symbol
_atom_site_aniso_U_11
_atom_site_aniso_U_22
_atom_site_aniso_U_33
_atom_site_aniso_U_12
_atom_site_aniso_U_13
_atom_site_aniso_U_23
K1 K1+ 0.032(1) 0.020(1) 0.026(1) -.001(1) 0.007(1) 0.001(1)
B1 B0+33 0.010(1) 0.010(1) 0.011(1) 0.000(1) 0.001(1) 0.001(1)
O1 O2- 0.013(1) 0.014(1) 0.018(1) -.002(1) -.003(1) -.001(1)
B2 B0+33 0.011(1) 0.010(1) 0.011(1) -.001(1) 0.001(1) 0.001(1)
O2 O2- 0.023(1) 0.014(1) 0.014(1) 0.001(1) 0.004(1) -.003(1)
B3 B0+33 0.011(1) 0.008(1) 0.012(1) 0.001(1) 0.000(1) 0.001(1)
O3 O2- 0.016(1) 0.009(1) 0.023(1) -.002(1) -.005(1) -.002(1)
B4 B0+33 0.009(1) 0.009(1) 0.012(1) -.001(1) 0.001(1) 0.002(1)
O4 O2- 0.013(1) 0.015(1) 0.022(1) 0.000(1) 0.007(1) 0.000(1)
B5 B0+33 0.010(1) 0.009(1) 0.013(1) 0.000(1) 0.001(1) -.001(1)
O5 O2- 0.011(1) 0.015(1) 0.024(1) 0.003(1) -.003(1) -.003(1)
B6 B0+33 0.010(1) 0.010(1) 0.011(1) 0.000(1) -.001(1) 0.001(1)
O6 O2- 0.015(1) 0.017(1) 0.017(1) 0.000(1) 0.002(1) 0.007(1)
H1 H1+ 0.02 0.02 0.02 0 0 0
H2 H1+ 0.022 0.022 0.022 0 0 0
H3 H1+ 0.021 0.021 0.021 0 0 0
H4 H1+ 0.021 0.021 0.021 0 0 0
H5 H1+ 0.022 0.022 0.022 0 0 0
H6 H1+ 0.021 0.021 0.021 0 0 0
#End of data_51304-ICSD
