###############################################################################
# Soulie, J.P.;Renaudin, G.;Cerny, R.;Yvon, K. (2002)
# Journal of Alloys Compd. 346, 200-205
# Lithium boro-hydride Li B H4
# 
# CIF by ICSD-for-WWW,  Copyright 2003 FIZ-Karlsruhe & A.W.Hewat (hewat@ill.fr)
# NOT TO BE PUBLISHED IN ANY FORM. See http://icsd.ill.fr/icsd/conditions.html
###############################################################################

data_95207-ICSD
_database_code_ICSD                95207
_audit_creation_date               2003-10-01
_chemical_name_systematic
'Lithium boron hydride - RT'
_chemical_formula_structural       
'Li B H4'
_chemical_formula_sum              
'H4 B1 Li1'
_publ_section_title                
'H4 B1 Li1'
loop_
_citation_id
_citation_journal_abbrev
_citation_year
_citation_journal_volume
_citation_page_first
_citation_page_last
_citation_journal_id_ASTM
primary 'Journal of Alloys Compd.' 2002 346 200 205 JALCEU
loop_
_publ_author_name
Soulie, J.P.;Renaudin, G.;Cerny, R.;Yvon, K.
_cell_length_a                     7.17858(4)
_cell_length_b                     4.43686(2)
_cell_length_c                     6.80321(4)
_cell_angle_alpha                  90
_cell_angle_beta                   90
_cell_angle_gamma                  90
_cell_volume                       216.6807
_cell_formula_units_Z              4
_symmetry_space_group_name_H-M     'P n m a'
_symmetry_Int_Tables_number        62
_refine_ls_R_factor_all            0.0352
loop_
_symmetry_equiv_pos_site_id
_symmetry_equiv_pos_as_xyz
   1   'x+1/2, y, -z+1/2'
   2   'x, -y+1/2, z'
   3   '-x+1/2, y+1/2, z+1/2'
   4   '-x, -y, -z'
   5   '-x+1/2, -y, z+1/2'
   6   '-x, y+1/2, -z'
   7   'x+1/2, -y+1/2, -z+1/2'
   8   'x, y, z'
loop_
_atom_type_symbol
_atom_type_oxidation_number
Li1+     1.
B3+     3.
H1-     -1.
 loop_
_atom_site_label
_atom_site_type_symbol
_atom_site_symmetry_multiplicity
_atom_site_Wyckoff_symbol
_atom_site_fract_x
_atom_site_fract_y
_atom_site_fract_z
_atom_site_B_iso_or_equiv
_atom_site_occupancy
Li1 Li1+ 4 c 0.1568(4) 0.250 0.1015(6) 0.0 1.
B1 B3+ 4 c 0.3040(3) 0.250 0.4305(1) 0.0 1.
H1 H1- 4 c 0.900(1) 0.250 0.956(3) 0.0 1.
H2 H1- 4 c 0.404(2) 0.250 0.280(2) 0.0 1.
H3 H1- 8 d 0.172(2) 0.054(2) 0.428(1) 0.0 1.
loop_
_atom_site_aniso_label
_atom_site_aniso_type_symbol
_atom_site_aniso_U_11
_atom_site_aniso_U_22
_atom_site_aniso_U_33
_atom_site_aniso_U_12
_atom_site_aniso_U_13
_atom_site_aniso_U_23
Li1 Li1+ 5.9(1) 5.9(1) 5.9(1) 0 0 0
B1 B3+ 3.3(1) 3.3(1) 3.3(1) 0 0 0
H1 H1- 5.3(2) 5.3(2) 5.3(2) 0 0 0
H2 H1- 5.3(2) 5.3(2) 5.3(2) 0 0 0
H3 H1- 5.3(2) 5.3(2) 5.3(2) 0 0 0
#End of data_95207-ICSD

