
###########################################################################
#
#                 Cambridge Crystallographic Data Centre
#                                CCDC 
# 
###########################################################################
#
#  This CIF contains data generated directly from one or more entries in
#  the Cambridge Structural Database and will include bibliographic, 
#  chemical, crystal, experimental, refinement, and atomic coordinate data,
#  as available.
#     
#  Copyright  2007  The Cambridge Crystallographic Data Centre
# 
#  This CIF is provided on the understanding that it is used for bona fide 
#  research purposes only.  It may contain copyright material of the CCDC
#  or of third parties, and may not be copied or further disseminated in 
#  any form, whether machine-readable or not, except for the purpose of 
#  generating routine backup copies on your local computer system.
# 
#  For further information about the CCDC, data deposition and data 
#  retrieval see <www.ccdc.cam.ac.uk>. Bona fide researchers may freely 
#  download  Mercury and enCIFer from this site to visualise CIF-encoded 
#  structures and to carry out CIF format checking respectively.
#
###########################################################################

data_CSD_CIF_GAFLAA
_audit_creation_date 1988-10-10
_audit_creation_method CSD-ConQuest-V1
_database_code_CSD GAFLAA
_chemical_formula_sum 'H6 B2'
_chemical_formula_moiety
;
H6 B2
;
_journal_coden_Cambridge 8
_journal_volume 43
_journal_year 1965
_journal_page_first 1060
_journal_name_full 'J.Chem.Phys. '
loop_
_publ_author_name
"H.W.Smith"
"W.N.Lipscomb"
_chemical_name_systematic
;
\b-Diborane
;
_cell_volume    157.944
_exptl_crystal_density_diffrn 0.581
_exptl_special_details
;
beta polymorph

;
_diffrn_ambient_temperature 83.15
#These two values have been output from a single CSD field.
_refine_ls_R_factor_gt 0.042
_refine_ls_wR_factor_gt 0.042
_symmetry_cell_setting monoclinic
_symmetry_space_group_name_H-M 'P 1 1 21/n'
_symmetry_Int_Tables_number 14
loop_
_symmetry_equiv_pos_site_id
_symmetry_equiv_pos_as_xyz
1 x,y,z
2 1/2-x,1/2-y,1/2+z
3 -x,-y,-z
4 -1/2+x,-1/2+y,-1/2-z
_cell_length_a 4.40(1)
_cell_length_b 5.72(1)
_cell_length_c 6.50(1)
_cell_angle_alpha 90
_cell_angle_beta 90
_cell_angle_gamma 105.1(1)
_cell_formula_units_Z 2
loop_
_atom_type_symbol
_atom_type_radius_bond
H 0.23
B 0.67
loop_
_atom_site_label
_atom_site_type_symbol
_atom_site_fract_x
_atom_site_fract_y
_atom_site_fract_z
B1 B 0.00200 0.14600 0.04200
H1 H -0.19400 0.16600 0.14000
H2 H 0.19600 0.29400 -0.00500
H3 H 0.10400 -0.01900 0.11200
H3B H -0.10400 0.01900 -0.11200
B1B B -0.00200 -0.14600 -0.04200
H1B H 0.19400 -0.16600 -0.14000
H2B H -0.19600 -0.29400 0.00500
#END
