###############################################################################
# Dougherty, D.;Herley, P.J.;Lauher, J.W. (1979)
# Acta Crystallographica B (24,1968-38,1982) 35, 1454-1456
# Sodium tetrahydridoaluminate
# 
# CIF by ICSD-for-WWW,  Copyright 2003 FIZ-Karlsruhe & A.W.Hewat (hewat@ill.fr)
# NOT TO BE PUBLISHED IN ANY FORM. See http://icsd.ill.fr/icsd/conditions.html
###############################################################################

data_8022-ICSD
_database_code_ICSD                8022
_audit_creation_date               1980-01-01
_chemical_name_systematic
'Sodium tetrahydridoaluminate'
_chemical_formula_structural       
'Na (Al H4)'
_chemical_formula_sum              
'H4 Al1 Na1'
_publ_section_title                
'H4 Al1 Na1'
loop_
_citation_id
_citation_journal_abbrev
_citation_year
_citation_journal_volume
_citation_page_first
_citation_page_last
_citation_journal_id_ASTM
primary 'Acta Crystallographica B (24,1968-38,198' 1979 35 1454 1456 ACBCAR
loop_
_publ_author_name
Dougherty, D.;Herley, P.J.;Lauher, J.W.
_cell_length_a                     5.020(2)
_cell_length_b                     5.020(2)
_cell_length_c                     11.330(3)
_cell_angle_alpha                  90.
_cell_angle_beta                   90.
_cell_angle_gamma                  90.
_cell_volume                       285.5208
_cell_formula_units_Z              4.000
_symmetry_space_group_name_H-M     'I 41/a'
_symmetry_Int_Tables_number        88
_refine_ls_R_factor_all            0.0398
loop_
_symmetry_equiv_pos_site_id
_symmetry_equiv_pos_as_xyz
   1   'y, -x+1/2, z+1/4'
   2   '-y, x+1/2, z+1/4'
   3   'y, -x, -z'
   4   '-y, x, -z'
   5   '-x, -y+1/2, -z+1/4'
   6   'x, y+1/2, -z+1/4'
   7   '-x, -y, z'
   8   'x, y, z'
   9   'y+1/2, -x, z+3/4'
  10   '-y+1/2, x, z+3/4'
  11   'y+1/2, -x+1/2, -z+1/2'
  12   '-y+1/2, x+1/2, -z+1/2'
  13   '-x+1/2, -y, -z+3/4'
  14   'x+1/2, y, -z+3/4'
  15   '-x+1/2, -y+1/2, z+1/2'
  16   'x+1/2, y+1/2, z+1/2'
loop_
_atom_type_symbol
_atom_type_oxidation_number
Al3+     3.
Na1+     1.
H1-     -1.
loop_
_atom_site_label
_atom_site_type_symbol
_atom_site_symmetry_multiplicity
_atom_site_Wyckoff_symbol
_atom_site_fract_x
_atom_site_fract_y
_atom_site_fract_z
_atom_site_B_iso_or_equiv
_atom_site_occupancy
Al1 Al3+ 4 a 0 0 0 0. 1.
Na1 Na1+ 4 b 0 0 0.5 0. 1.
H1 H1- 16 f 0.228(1) 0.117(2) 0.838(9) 1.8 1.
loop_
_atom_site_aniso_label
_atom_site_aniso_type_symbol
_atom_site_aniso_Beta_11
_atom_site_aniso_Beta_22
_atom_site_aniso_Beta_33
_atom_site_aniso_Beta_12
_atom_site_aniso_Beta_13
_atom_site_aniso_Beta_23
Al1 Al3+ 0.0139(1) 0.0139(1) 0.00362(2) 0 0 0
Na1 Na1+ 0.0255(3) 0.0255(3) 0.00446(4) 0 0 0
#End of data_8022-ICSD

