###############################################################################
# Soulie, J.P.;Renaudin, G.;Cerny, R.;Yvon, K. (2002)
# Journal of Alloys Compd. 346, 200-205
# Lithium boro-hydride Li B H4
# 
# CIF by ICSD-for-WWW,  Copyright 2003 FIZ-Karlsruhe & A.W.Hewat (hewat@ill.fr)
# NOT TO BE PUBLISHED IN ANY FORM. See http://icsd.ill.fr/icsd/conditions.html
###############################################################################

data_95208-ICSD
_database_code_ICSD                95208
_audit_creation_date               2003-10-01
_chemical_name_systematic
'Lithium boron hydride - HT'
_chemical_formula_structural       
'Li B H4'
_chemical_formula_sum              
'H4 B1 Li1'
_publ_section_title                
'H4 B1 Li1'
loop_
_citation_id
_citation_journal_abbrev
_citation_year
_citation_journal_volume
_citation_page_first
_citation_page_last
_citation_journal_id_ASTM
primary 'Journal of Alloys Compd.' 2002 346 200 205 JALCEU
loop_
_publ_author_name
Soulie, J.P.;Renaudin, G.;Cerny, R.;Yvon, K.
_cell_length_a                     4.27631(5)
_cell_length_b                     4.27631(5)
_cell_length_c                     6.94844(8)
_cell_angle_alpha                  90
_cell_angle_beta                   90
_cell_angle_gamma                  120
_cell_volume                       110.0404
_cell_formula_units_Z              2
_symmetry_space_group_name_H-M     'P 63 m c'
_symmetry_Int_Tables_number        186
_refine_ls_R_factor_all            0.056
loop_
_symmetry_equiv_pos_site_id
_symmetry_equiv_pos_as_xyz
   1   '-x, -x+y, z+1/2'
   2   'x-y, -y, z+1/2'
   3   'y, x, z+1/2'
   4   'x-y, x, z+1/2'
   5   'y, -x+y, z+1/2'
   6   '-x, -y, z+1/2'
   7   'x, x-y, z'
   8   '-x+y, y, z'
   9   '-y, -x, z'
  10   '-x+y, -x, z'
  11   '-y, x-y, z'
  12   'x, y, z'
loop_
_atom_type_symbol
_atom_type_oxidation_number
Li     1.
B     3.
H     -1.
 loop_
_atom_site_label
_atom_site_type_symbol
_atom_site_symmetry_multiplicity
_atom_site_Wyckoff_symbol
_atom_site_fract_x
_atom_site_fract_y
_atom_site_fract_z
_atom_site_B_iso_or_equiv
_atom_site_occupancy
Li1 Li 2 b 0.3333 0.6667 0. 0.0 1.
B1 B 2 b 0.3333 0.6667 0.553(1) 0.0 1.
H1 H 2 b 0.3333 0.6667 0.370(2) 0.0 1.
H2 H 6 c 0.172(2) 0.344(4) 0.624(3) 0.0 1.
loop_
_atom_site_aniso_label
_atom_site_aniso_type_symbol
_atom_site_aniso_U_11
_atom_site_aniso_U_22
_atom_site_aniso_U_33
_atom_site_aniso_U_12
_atom_site_aniso_U_13
_atom_site_aniso_U_23
Li1 Li1+ 1.0(2) 1.0(2) 1.0(2) 0 0 0
B1 B3+ 8.6(4) 8.6(4) 8.6(4) 0 0 0
H1 H1- 3.5(5) 3.5(5) 3.5(5) 0 0 0
H2 H1- 6.4(4) 6.4(4) 6.4(4) 0 0 0
#End of data_95208-ICSD

